<?xml version="1.0"?>
<VTKFile type="UnstructuredGrid"  version="0.1"  >
<UnstructuredGrid>
<Piece  NumberOfPoints="402" NumberOfCells="400">
<Points>
<DataArray  type="Float64"  NumberOfComponents="3"  format="ascii">0 0 0  0.06 0 0  0.12 0 0  0.18 0 0  0.24 0 0  0.3 0 0  0.36 0 0  0.42 0 0  0.48 0 0  0.54 0 0  0.6 0 0  0.66 0 0  0.72 0 0  0.78 0 0  0.84 0 0  0.9 0 0  0.96 0 0  1.02 0 0  1.08 0 0  1.14 0 0  1.2 0 0  1.26 0 0  1.32 0 0  1.38 0 0  1.44 0 0  1.5 0 0  1.56 0 0  1.62 0 0  1.68 0 0  1.74 0 0  1.8 0 0  1.86 0 0  1.92 0 0  1.98 0 0  2.04 0 0  2.1 0 0  2.16 0 0  2.22 0 0  2.28 0 0  2.34 0 0  2.4 0 0  2.46 0 0  2.52 0 0  2.58 0 0  2.64 0 0  2.7 0 0  2.76 0 0  2.82 0 0  2.88 0 0  2.94 0 0  3 0 0  3.06 0 0  3.12 0 0  3.18 0 0  3.24 0 0  3.3 0 0  3.36 0 0  3.42 0 0  3.48 0 0  3.54 0 0  3.6 0 0  3.66 0 0  3.72 0 0  3.78 0 0  3.84 0 0  3.9 0 0  3.96 0 0  4.02 0 0  4.08 0 0  4.14 0 0  4.2 0 0  4.26 0 0  4.32 0 0  4.38 0 0  4.44 0 0  4.5 0 0  4.56 0 0  4.62 0 0  4.68 0 0  4.74 0 0  4.8 0 0  4.86 0 0  4.92 0 0  4.98 0 0  5.04 0 0  5.1 0 0  5.16 0 0  5.22 0 0  5.28 0 0  5.34 0 0  5.4 0 0  5.46 0 0  5.52 0 0  5.58 0 0  5.64 0 0  5.7 0 0  5.76 0 0  5.82 0 0  5.88 0 0  5.94 0 0  6 0 0  6.06 0 0  6.12 0 0  6.18 0 0  6.24 0 0  6.3 0 0  6.36 0 0  6.42 0 0  6.48 0 0  6.54 0 0  6.6 0 0  6.66 0 0  6.72 0 0  6.78 0 0  6.84 0 0  6.9 0 0  6.96 0 0  7.02 0 0  7.08 0 0  7.14 0 0  7.2 0 0  7.26 0 0  7.32 0 0  7.38 0 0  7.44 0 0  7.5 0 0  7.56 0 0  7.62 0 0  7.68 0 0  7.74 0 0  7.8 0 0  7.86 0 0  7.92 0 0  7.98 0 0  8.039999999999999 0 0  8.1 0 0  8.16 0 0  8.220000000000001 0 0  8.279999999999999 0 0  8.34 0 0  8.4 0 0  8.460000000000001 0 0  8.52 0 0  8.58 0 0  8.640000000000001 0 0  8.699999999999999 0 0  8.76 0 0  8.82 0 0  8.880000000000001 0 0  8.94 0 0  9 0 0  9.06 0 0  9.119999999999999 0 0  9.18 0 0  9.24 0 0  9.300000000000001 0 0  9.359999999999999 0 0  9.42 0 0  9.48 0 0  9.539999999999999 0 0  9.6 0 0  9.66 0 0  9.720000000000001 0 0  9.779999999999999 0 0  9.84 0 0  9.9 0 0  9.960000000000001 0 0  10.02 0 0  10.08 0 0  10.14 0 0  10.2 0 0  10.26 0 0  10.32 0 0  10.38 0 0  10.44 0 0  10.5 0 0  10.56 0 0  10.62 0 0  10.68 0 0  10.74 0 0  10.8 0 0  10.86 0 0  10.92 0 0  10.98 0 0  11.04 0 0  11.1 0 0  11.16 0 0  11.22 0 0  11.28 0 0  11.34 0 0  11.4 0 0  11.46 0 0  11.52 0 0  11.58 0 0  11.64 0 0  11.7 0 0  11.76 0 0  11.82 0 0  11.88 0 0  11.94 0 0  12 0 0  0 0.01 0  0.06 0.01 0  0.12 0.01 0  0.18 0.01 0  0.24 0.01 0  0.3 0.01 0  0.36 0.01 0  0.42 0.01 0  0.48 0.01 0  0.54 0.01 0  0.6 0.01 0  0.66 0.01 0  0.72 0.01 0  0.78 0.01 0  0.84 0.01 0  0.9 0.01 0  0.96 0.01 0  1.02 0.01 0  1.08 0.01 0  1.14 0.01 0  1.2 0.01 0  1.26 0.01 0  1.32 0.01 0  1.38 0.01 0  1.44 0.01 0  1.5 0.01 0  1.56 0.01 0  1.62 0.01 0  1.68 0.01 0  1.74 0.01 0  1.8 0.01 0  1.86 0.01 0  1.92 0.01 0  1.98 0.01 0  2.04 0.01 0  2.1 0.01 0  2.16 0.01 0  2.22 0.01 0  2.28 0.01 0  2.34 0.01 0  2.4 0.01 0  2.46 0.01 0  2.52 0.01 0  2.58 0.01 0  2.64 0.01 0  2.7 0.01 0  2.76 0.01 0  2.82 0.01 0  2.88 0.01 0  2.94 0.01 0  3 0.01 0  3.06 0.01 0  3.12 0.01 0  3.18 0.01 0  3.24 0.01 0  3.3 0.01 0  3.36 0.01 0  3.42 0.01 0  3.48 0.01 0  3.54 0.01 0  3.6 0.01 0  3.66 0.01 0  3.72 0.01 0  3.78 0.01 0  3.84 0.01 0  3.9 0.01 0  3.96 0.01 0  4.02 0.01 0  4.08 0.01 0  4.14 0.01 0  4.2 0.01 0  4.26 0.01 0  4.32 0.01 0  4.38 0.01 0  4.44 0.01 0  4.5 0.01 0  4.56 0.01 0  4.62 0.01 0  4.68 0.01 0  4.74 0.01 0  4.8 0.01 0  4.86 0.01 0  4.92 0.01 0  4.98 0.01 0  5.04 0.01 0  5.1 0.01 0  5.16 0.01 0  5.22 0.01 0  5.28 0.01 0  5.34 0.01 0  5.4 0.01 0  5.46 0.01 0  5.52 0.01 0  5.58 0.01 0  5.64 0.01 0  5.7 0.01 0  5.76 0.01 0  5.82 0.01 0  5.88 0.01 0  5.94 0.01 0  6 0.01 0  6.06 0.01 0  6.12 0.01 0  6.18 0.01 0  6.24 0.01 0  6.3 0.01 0  6.36 0.01 0  6.42 0.01 0  6.48 0.01 0  6.54 0.01 0  6.6 0.01 0  6.66 0.01 0  6.72 0.01 0  6.78 0.01 0  6.84 0.01 0  6.9 0.01 0  6.96 0.01 0  7.02 0.01 0  7.08 0.01 0  7.14 0.01 0  7.2 0.01 0  7.26 0.01 0  7.32 0.01 0  7.38 0.01 0  7.44 0.01 0  7.5 0.01 0  7.56 0.01 0  7.62 0.01 0  7.68 0.01 0  7.74 0.01 0  7.8 0.01 0  7.86 0.01 0  7.92 0.01 0  7.98 0.01 0  8.039999999999999 0.01 0  8.1 0.01 0  8.16 0.01 0  8.220000000000001 0.01 0  8.279999999999999 0.01 0  8.34 0.01 0  8.4 0.01 0  8.460000000000001 0.01 0  8.52 0.01 0  8.58 0.01 0  8.640000000000001 0.01 0  8.699999999999999 0.01 0  8.76 0.01 0  8.82 0.01 0  8.880000000000001 0.01 0  8.94 0.01 0  9 0.01 0  9.06 0.01 0  9.119999999999999 0.01 0  9.18 0.01 0  9.24 0.01 0  9.300000000000001 0.01 0  9.359999999999999 0.01 0  9.42 0.01 0  9.48 0.01 0  9.539999999999999 0.01 0  9.6 0.01 0  9.66 0.01 0  9.720000000000001 0.01 0  9.779999999999999 0.01 0  9.84 0.01 0  9.9 0.01 0  9.960000000000001 0.01 0  10.02 0.01 0  10.08 0.01 0  10.14 0.01 0  10.2 0.01 0  10.26 0.01 0  10.32 0.01 0  10.38 0.01 0  10.44 0.01 0  10.5 0.01 0  10.56 0.01 0  10.62 0.01 0  10.68 0.01 0  10.74 0.01 0  10.8 0.01 0  10.86 0.01 0  10.92 0.01 0  10.98 0.01 0  11.04 0.01 0  11.1 0.01 0  11.16 0.01 0  11.22 0.01 0  11.28 0.01 0  11.34 0.01 0  11.4 0.01 0  11.46 0.01 0  11.52 0.01 0  11.58 0.01 0  11.64 0.01 0  11.7 0.01 0  11.76 0.01 0  11.82 0.01 0  11.88 0.01 0  11.94 0.01 0  12 0.01 0  </DataArray>
</Points>
<Cells>
<DataArray  type="UInt32"  Name="connectivity"  format="ascii">0 1 202  0 201 202  1 2 203  1 202 203  2 3 204  2 203 204  3 4 205  3 204 205  4 5 206  4 205 206  5 6 207  5 206 207  6 7 208  6 207 208  7 8 209  7 208 209  8 9 210  8 209 210  9 10 211  9 210 211  10 11 212  10 211 212  11 12 213  11 212 213  12 13 214  12 213 214  13 14 215  13 214 215  14 15 216  14 215 216  15 16 217  15 216 217  16 17 218  16 217 218  17 18 219  17 218 219  18 19 220  18 219 220  19 20 221  19 220 221  20 21 222  20 221 222  21 22 223  21 222 223  22 23 224  22 223 224  23 24 225  23 224 225  24 25 226  24 225 226  25 26 227  25 226 227  26 27 228  26 227 228  27 28 229  27 228 229  28 29 230  28 229 230  29 30 231  29 230 231  30 31 232  30 231 232  31 32 233  31 232 233  32 33 234  32 233 234  33 34 235  33 234 235  34 35 236  34 235 236  35 36 237  35 236 237  36 37 238  36 237 238  37 38 239  37 238 239  38 39 240  38 239 240  39 40 241  39 240 241  40 41 242  40 241 242  41 42 243  41 242 243  42 43 244  42 243 244  43 44 245  43 244 245  44 45 246  44 245 246  45 46 247  45 246 247  46 47 248  46 247 248  47 48 249  47 248 249  48 49 250  48 249 250  49 50 251  49 250 251  50 51 252  50 251 252  51 52 253  51 252 253  52 53 254  52 253 254  53 54 255  53 254 255  54 55 256  54 255 256  55 56 257  55 256 257  56 57 258  56 257 258  57 58 259  57 258 259  58 59 260  58 259 260  59 60 261  59 260 261  60 61 262  60 261 262  61 62 263  61 262 263  62 63 264  62 263 264  63 64 265  63 264 265  64 65 266  64 265 266  65 66 267  65 266 267  66 67 268  66 267 268  67 68 269  67 268 269  68 69 270  68 269 270  69 70 271  69 270 271  70 71 272  70 271 272  71 72 273  71 272 273  72 73 274  72 273 274  73 74 275  73 274 275  74 75 276  74 275 276  75 76 277  75 276 277  76 77 278  76 277 278  77 78 279  77 278 279  78 79 280  78 279 280  79 80 281  79 280 281  80 81 282  80 281 282  81 82 283  81 282 283  82 83 284  82 283 284  83 84 285  83 284 285  84 85 286  84 285 286  85 86 287  85 286 287  86 87 288  86 287 288  87 88 289  87 288 289  88 89 290  88 289 290  89 90 291  89 290 291  90 91 292  90 291 292  91 92 293  91 292 293  92 93 294  92 293 294  93 94 295  93 294 295  94 95 296  94 295 296  95 96 297  95 296 297  96 97 298  96 297 298  97 98 299  97 298 299  98 99 300  98 299 300  99 100 301  99 300 301  100 101 302  100 301 302  101 102 303  101 302 303  102 103 304  102 303 304  103 104 305  103 304 305  104 105 306  104 305 306  105 106 307  105 306 307  106 107 308  106 307 308  107 108 309  107 308 309  108 109 310  108 309 310  109 110 311  109 310 311  110 111 312  110 311 312  111 112 313  111 312 313  112 113 314  112 313 314  113 114 315  113 314 315  114 115 316  114 315 316  115 116 317  115 316 317  116 117 318  116 317 318  117 118 319  117 318 319  118 119 320  118 319 320  119 120 321  119 320 321  120 121 322  120 321 322  121 122 323  121 322 323  122 123 324  122 323 324  123 124 325  123 324 325  124 125 326  124 325 326  125 126 327  125 326 327  126 127 328  126 327 328  127 128 329  127 328 329  128 129 330  128 329 330  129 130 331  129 330 331  130 131 332  130 331 332  131 132 333  131 332 333  132 133 334  132 333 334  133 134 335  133 334 335  134 135 336  134 335 336  135 136 337  135 336 337  136 137 338  136 337 338  137 138 339  137 338 339  138 139 340  138 339 340  139 140 341  139 340 341  140 141 342  140 341 342  141 142 343  141 342 343  142 143 344  142 343 344  143 144 345  143 344 345  144 145 346  144 345 346  145 146 347  145 346 347  146 147 348  146 347 348  147 148 349  147 348 349  148 149 350  148 349 350  149 150 351  149 350 351  150 151 352  150 351 352  151 152 353  151 352 353  152 153 354  152 353 354  153 154 355  153 354 355  154 155 356  154 355 356  155 156 357  155 356 357  156 157 358  156 357 358  157 158 359  157 358 359  158 159 360  158 359 360  159 160 361  159 360 361  160 161 362  160 361 362  161 162 363  161 362 363  162 163 364  162 363 364  163 164 365  163 364 365  164 165 366  164 365 366  165 166 367  165 366 367  166 167 368  166 367 368  167 168 369  167 368 369  168 169 370  168 369 370  169 170 371  169 370 371  170 171 372  170 371 372  171 172 373  171 372 373  172 173 374  172 373 374  173 174 375  173 374 375  174 175 376  174 375 376  175 176 377  175 376 377  176 177 378  176 377 378  177 178 379  177 378 379  178 179 380  178 379 380  179 180 381  179 380 381  180 181 382  180 381 382  181 182 383  181 382 383  182 183 384  182 383 384  183 184 385  183 384 385  184 185 386  184 385 386  185 186 387  185 386 387  186 187 388  186 387 388  187 188 389  187 388 389  188 189 390  188 389 390  189 190 391  189 390 391  190 191 392  190 391 392  191 192 393  191 392 393  192 193 394  192 393 394  193 194 395  193 394 395  194 195 396  194 395 396  195 196 397  195 396 397  196 197 398  196 397 398  197 198 399  197 398 399  198 199 400  198 399 400  199 200 401  199 400 401  </DataArray>
<DataArray  type="UInt32"  Name="offsets"  format="ascii">3 6 9 12 15 18 21 24 27 30 33 36 39 42 45 48 51 54 57 60 63 66 69 72 75 78 81 84 87 90 93 96 99 102 105 108 111 114 117 120 123 126 129 132 135 138 141 144 147 150 153 156 159 162 165 168 171 174 177 180 183 186 189 192 195 198 201 204 207 210 213 216 219 222 225 228 231 234 237 240 243 246 249 252 255 258 261 264 267 270 273 276 279 282 285 288 291 294 297 300 303 306 309 312 315 318 321 324 327 330 333 336 339 342 345 348 351 354 357 360 363 366 369 372 375 378 381 384 387 390 393 396 399 402 405 408 411 414 417 420 423 426 429 432 435 438 441 444 447 450 453 456 459 462 465 468 471 474 477 480 483 486 489 492 495 498 501 504 507 510 513 516 519 522 525 528 531 534 537 540 543 546 549 552 555 558 561 564 567 570 573 576 579 582 585 588 591 594 597 600 603 606 609 612 615 618 621 624 627 630 633 636 639 642 645 648 651 654 657 660 663 666 669 672 675 678 681 684 687 690 693 696 699 702 705 708 711 714 717 720 723 726 729 732 735 738 741 744 747 750 753 756 759 762 765 768 771 774 777 780 783 786 789 792 795 798 801 804 807 810 813 816 819 822 825 828 831 834 837 840 843 846 849 852 855 858 861 864 867 870 873 876 879 882 885 888 891 894 897 900 903 906 909 912 915 918 921 924 927 930 933 936 939 942 945 948 951 954 957 960 963 966 969 972 975 978 981 984 987 990 993 996 999 1002 1005 1008 1011 1014 1017 1020 1023 1026 1029 1032 1035 1038 1041 1044 1047 1050 1053 1056 1059 1062 1065 1068 1071 1074 1077 1080 1083 1086 1089 1092 1095 1098 1101 1104 1107 1110 1113 1116 1119 1122 1125 1128 1131 1134 1137 1140 1143 1146 1149 1152 1155 1158 1161 1164 1167 1170 1173 1176 1179 1182 1185 1188 1191 1194 1197 1200 </DataArray>
<DataArray  type="UInt8"  Name="types"  format="ascii">5 5 5 5 5 5 5 5 5 5 5 5 5 5 5 5 5 5 5 5 5 5 5 5 5 5 5 5 5 5 5 5 5 5 5 5 5 5 5 5 5 5 5 5 5 5 5 5 5 5 5 5 5 5 5 5 5 5 5 5 5 5 5 5 5 5 5 5 5 5 5 5 5 5 5 5 5 5 5 5 5 5 5 5 5 5 5 5 5 5 5 5 5 5 5 5 5 5 5 5 5 5 5 5 5 5 5 5 5 5 5 5 5 5 5 5 5 5 5 5 5 5 5 5 5 5 5 5 5 5 5 5 5 5 5 5 5 5 5 5 5 5 5 5 5 5 5 5 5 5 5 5 5 5 5 5 5 5 5 5 5 5 5 5 5 5 5 5 5 5 5 5 5 5 5 5 5 5 5 5 5 5 5 5 5 5 5 5 5 5 5 5 5 5 5 5 5 5 5 5 5 5 5 5 5 5 5 5 5 5 5 5 5 5 5 5 5 5 5 5 5 5 5 5 5 5 5 5 5 5 5 5 5 5 5 5 5 5 5 5 5 5 5 5 5 5 5 5 5 5 5 5 5 5 5 5 5 5 5 5 5 5 5 5 5 5 5 5 5 5 5 5 5 5 5 5 5 5 5 5 5 5 5 5 5 5 5 5 5 5 5 5 5 5 5 5 5 5 5 5 5 5 5 5 5 5 5 5 5 5 5 5 5 5 5 5 5 5 5 5 5 5 5 5 5 5 5 5 5 5 5 5 5 5 5 5 5 5 5 5 5 5 5 5 5 5 5 5 5 5 5 5 5 5 5 5 5 5 5 5 5 5 5 5 5 5 5 5 5 5 5 5 5 5 5 5 5 5 5 5 5 5 5 5 5 5 5 5 5 5 5 5 5 5 5 5 5 5 5 5 </DataArray>
</Cells>
<PointData  Scalars="vs-16"> 
<DataArray  type="Float64"  Name="vs-16"  format="ascii">2.8789659582792438e-04  2.8789867457737831e-04  2.8790369687078980e-04  2.8791048336439208e-04  2.8792174605252928e-04  2.8789761403491678e-04  2.8779002929369253e-04  2.8751041993924575e-04  2.8705760972946555e-04  2.8656761280458192e-04  2.8610346411660328e-04  2.8568666675734004e-04  2.8530047727006727e-04  2.8495962582305413e-04  2.8465242222579842e-04  2.8440352997165138e-04  2.8416660246099898e-04  2.8395259572194597e-04  2.8375318592916500e-04  2.8354998980042719e-04  2.8333471943104549e-04  2.8311747287653707e-04  2.8286824379579955e-04  2.8260772715276897e-04  2.8230258832459646e-04  2.8195582043909711e-04  2.8156017446343776e-04  2.8111162143721751e-04  2.8062331534825313e-04  2.8007874977076550e-04  2.7945878136121760e-04  2.7881049688211943e-04  2.7806685485977963e-04  2.7725313690195368e-04  2.7636318328963635e-04  2.7542084280672140e-04  2.7439959372855920e-04  2.7329353015439166e-04  2.7211003466382356e-04  2.7086232814634448e-04  2.6949889706254416e-04  2.6804177616674026e-04  2.6651950321457483e-04  2.6489830564680502e-04  2.6317817327222419e-04  2.6138872363676622e-04  2.5948615064066050e-04  2.5750468357496674e-04  2.5542739008159357e-04  2.5324580259914885e-04  2.5095605721760326e-04  2.4858455173901671e-04  2.4610298908388380e-04  2.4350559455821850e-04  2.4079493337306638e-04  2.3802813744406884e-04  2.3514207938708594e-04  2.3213778135814869e-04  2.2905488361397303e-04  2.2584808307913316e-04  2.2253113531430551e-04  2.1910587580200775e-04  2.1560928721198414e-04  2.1200146776900576e-04  2.0827957205989478e-04  2.0444772603757123e-04  2.0055390613867672e-04  1.9653139759800723e-04  1.9240243959579053e-04  1.8816868715619060e-04  1.8387946083955536e-04  1.7949080256984097e-04  1.7500284116454853e-04  1.7046050162668663e-04  1.6583968114466561e-04  1.6110706706109942e-04  1.5627532178315843e-04  1.5139611576265062e-04  1.4642184081747268e-04  1.4134491289185774e-04  1.3618461716696103e-04  1.3099558476728523e-04  1.2572597997610282e-04  1.2037628092005058e-04  1.1499083124530843e-04  1.0952462587263733e-04  1.0397751365962042e-04  9.8363564835930950e-05  9.2737027911292191e-05  8.7043267039014816e-05  8.1270957196804064e-05  7.5438848520381784e-05  6.9611437092910255e-05  6.3737632997436859e-05  5.7807452197590588e-05  5.1837440051347221e-05  4.5882755436034581e-05  3.9891130586893974e-05  3.3857692955982449e-05  2.7793906202176402e-05  2.2361582405258448e-05  2.0626459893579201e-05  2.0317534797267915e-05  2.0234188428291169e-05  2.0212739950841687e-05  2.0204733008120414e-05  2.0200328960454857e-05  2.0196944180919926e-05  2.0194954975064410e-05  2.0194289944357613e-05  2.0194144224076946e-05  2.0193399535524986e-05  2.0191216181311507e-05  2.0188768065779672e-05  2.0186499693112500e-05  2.0184578512500784e-05  2.0182604301875512e-05  2.0179983797084671e-05  2.0179228725902097e-05  2.0178064159687931e-05  2.0176795449601344e-05  2.0174436983461108e-05  2.0172166379737396e-05  2.0170194087051818e-05  2.0168412918882633e-05  2.0167190365427650e-05  2.0167560272020278e-05  2.0170180835206179e-05  2.0171743716016926e-05  2.0173066513918127e-05  2.0172527451570612e-05  2.0172162104820506e-05  2.0171757126757333e-05  2.0170809418723160e-05  2.0169989614289857e-05  2.0169583810272925e-05  2.0171770929384713e-05  2.0173124545065174e-05  2.0175633680133437e-05  2.0176424915133747e-05  2.0177031806170494e-05  2.0177757822667283e-05  2.0178500866748700e-05  2.0179126121168059e-05  2.0179913958644441e-05  2.0181108556014779e-05  2.0184545133811191e-05  2.0186912219054447e-05  2.0189411531977620e-05  2.0190838010599662e-05  2.0192691415824123e-05  2.0194004475117004e-05  2.0195495908341798e-05  2.0197149399327812e-05  2.0198920529690280e-05  2.0203560843691387e-05  2.0207606131476552e-05  2.0213258405392046e-05  2.0217834828248821e-05  2.0221548985158980e-05  2.0225975276176574e-05  2.0230106345647682e-05  2.0233836669590639e-05  2.0237441839056295e-05  2.0243283626237814e-05  2.0249067181410109e-05  2.0255405004457134e-05  2.0260865641644597e-05  2.0266027716028920e-05  2.0271653710151138e-05  2.0277440421035219e-05  2.0284026164545791e-05  2.0289817084889791e-05  2.0297504131822275e-05  2.0305773676025598e-05  2.0314075090515863e-05  2.0322522431025913e-05  2.0330353190364671e-05  2.0338369690611027e-05  2.0347026802031332e-05  2.0355846969141554e-05  2.0364792923428031e-05  2.0373963346024374e-05  2.0384627659028088e-05  2.0396206083978481e-05  2.0406989809248050e-05  2.0419562365240274e-05  2.0431167566244505e-05  2.0443112147851702e-05  2.0455389706412289e-05  2.0468052620228922e-05  2.0480511661643905e-05  2.0492986656824743e-05  2.0505083807524910e-05  2.0516577811107712e-05  2.0527288581192747e-05  2.0535591433892226e-05  2.0538359182477017e-05  2.0502140550483125e-05  2.0356617412346631e-05  2.0247433981429689e-05  2.8789658407199216e-04  2.8789866504819878e-04  2.8790369240044134e-04  2.8791047320700131e-04  2.8792173467966038e-04  2.8789759754729649e-04  2.8779001159296596e-04  2.8751043559475085e-04  2.8705771259275928e-04  2.8656772670017535e-04  2.8610365695664431e-04  2.8568676537636819e-04  2.8530059354595392e-04  2.8495976455089448e-04  2.8465263115279559e-04  2.8440361887224996e-04  2.8416667185470374e-04  2.8395273396098240e-04  2.8375333174142489e-04  2.8355009116847303e-04  2.8333488340937326e-04  2.8311761800296688e-04  2.8286847416143139e-04  2.8260782311321874e-04  2.8230272817705593e-04  2.8195595136059622e-04  2.8156030030976375e-04  2.8111177435146133e-04  2.8062352104902394e-04  2.8007896794387361e-04  2.7945942781066674e-04  2.7881065438812262e-04  2.7806698440744558e-04  2.7725330315421737e-04  2.7636337758907796e-04  2.7542103097537648e-04  2.7439978769321554e-04  2.7329374169644859e-04  2.7211032834398400e-04  2.7086263668810135e-04  2.6949907291580748e-04  2.6804195410867098e-04  2.6651972292070713e-04  2.6489851296671762e-04  2.6317842451931454e-04  2.6138893523248421e-04  2.5948666844519223e-04  2.5750487741065968e-04  2.5542759182397212e-04  2.5324600385652599e-04  2.5095628677299509e-04  2.4858480098531398e-04  2.4610323344510571e-04  2.4350600193695358e-04  2.4079541272984482e-04  2.3802379338940086e-04  2.3514229835662988e-04  2.3213802594865369e-04  2.2905516594353849e-04  2.2584843709416201e-04  2.2253142869894826e-04  2.1910617372874805e-04  2.1560959460635074e-04  2.1200182555721595e-04  2.0827996850160264e-04  2.0444809435066493e-04  2.0055265323212375e-04  1.9653173091798516e-04  1.9240279222780879e-04  1.8816901368890263e-04  1.8387981165980750e-04  1.7949119982094386e-04  1.7500329540158483e-04  1.7046087520049204e-04  1.6584002951332678e-04  1.6110738410622240e-04  1.5627565058483236e-04  1.5139645587131098e-04  1.4642222329903213e-04  1.4134529445681974e-04  1.3618503409673147e-04  1.3099602582827025e-04  1.2572644379549753e-04  1.2037666338014335e-04  1.1499119688644546e-04  1.0952498652860274e-04  1.0397790087436454e-04  9.8363940182363827e-05  9.2737421790496413e-05  8.7043668895772633e-05  8.1271393129778109e-05  7.5439262991715530e-05  6.9611272304162449e-05  6.3738036367123755e-05  5.7807850538756793e-05  5.1837839616036092e-05  4.5883198812307906e-05  3.9891570570489084e-05  3.3858141719360998e-05  2.7794357969015604e-05  2.2362051759507935e-05  2.0626546945467126e-05  2.0317553034713611e-05  2.0234218200974002e-05  2.0212783381656825e-05  2.0204784566869871e-05  2.0200391326275278e-05  2.0197004229064991e-05  2.0195013829856238e-05  2.0194216516596502e-05  2.0194190108561485e-05  2.0193447272514268e-05  2.0191262488299482e-05  2.0188817861643793e-05  2.0186552388933148e-05  2.0184631888647904e-05  2.0182652601268880e-05  2.0180042873961675e-05  2.0179269555203978e-05  2.0178111503778076e-05  2.0176840249408884e-05  2.0174495121461775e-05  2.0172217026159670e-05  2.0170248267085324e-05  2.0168470605151613e-05  2.0167250903973127e-05  2.0167535458816831e-05  2.0170231518208699e-05  2.0171790581115886e-05  2.0173109574533801e-05  2.0172573422170135e-05  2.0172216521913496e-05  2.0171809368169274e-05  2.0170864956304831e-05  2.0170049160360646e-05  2.0169635128097972e-05  2.0171824872478797e-05  2.0173174313565167e-05  2.0175678258016543e-05  2.0176469687770740e-05  2.0177083672382181e-05  2.0177807605807973e-05  2.0178553938343673e-05  2.0179183474747169e-05  2.0179968854412758e-05  2.0181106140197595e-05  2.0184595924364873e-05  2.0186845106156753e-05  2.0189454551765977e-05  2.0190882811706741e-05  2.0192742191271158e-05  2.0194054783164929e-05  2.0195548805893439e-05  2.0197210587711379e-05  2.0198979516521217e-05  2.0203575082982760e-05  2.0207657642665810e-05  2.0213304432713184e-05  2.0217881261967693e-05  2.0221599170490619e-05  2.0226026410520847e-05  2.0230160192269556e-05  2.0233893819422598e-05  2.0237484996901753e-05  2.0243267724442488e-05  2.0249117064284558e-05  2.0255450583217623e-05  2.0260911288664290e-05  2.0266075743093311e-05  2.0271704216891455e-05  2.0277494456969143e-05  2.0284082611954994e-05  2.0289875292163465e-05  2.0297558545845181e-05  2.0305823638553522e-05  2.0314122607017694e-05  2.0322568542859448e-05  2.0330400302308106e-05  2.0338419489678455e-05  2.0347078297928705e-05  2.0355903626385578e-05  2.0364850765941417e-05  2.0374019207019555e-05  2.0384682494500798e-05  2.0396186764424963e-05  2.0407038646858605e-05  2.0419607327804372e-05  2.0431214020930388e-05  2.0443160812966463e-05  2.0455441238187402e-05  2.0468105210186935e-05  2.0480563507113869e-05  2.0493041810218927e-05  2.0505138109832680e-05  2.0516634145602090e-05  2.0527296742408879e-05  2.0535643275867821e-05  2.0538171938861300e-05  2.0502116033287214e-05  2.0356688882442511e-05  2.0247326668851747e-05  </DataArray> 
</PointData> 
</Piece>
</UnstructuredGrid>
</VTKFile>